[
  {
    "id": "science_element_001",
    "category": "Chemistry",
    "topic": "Periodic Table",
    "curriculum_level": "SS2-SS3",
    "title": "Interactive Periodic Table: Hydrogen",
    "content": {
      "element": {
        "symbol": "H",
        "atomic_number": 1,
        "atomic_mass": 1.008,
        "group": 1,
        "period": 1,
        "block": "s",
        "electron_configuration": "1s¹",
        "state_at_rtp": "Gas",
        "melting_point_c": -259.16,
        "boiling_point_c": -252.87,
        "density_g_cm3": 0.0000899
      },
      "properties": "Hydrogen is the lightest element, highly flammable, and the most abundant in the universe. It exists as diatomic molecules (H₂).",
      "uses": "Fuel cells, ammonia production, petroleum refining, welding",
      "nigerian_context": "Hydrogen production from natural gas in Nigerian refineries, potential for clean energy in Lagos.",
      "related_concepts": ["Isotopes", "Chemical bonding", "Electrolysis"],
      "difficulty": "Intermediate",
      "tags": ["periodic table", "elements", "chemistry"]
    },
    "multimedia": {
      "interactive_diagram": "hydrogen_atom_model.html",
      "animation": "hydrogen_reactions.mp4",
      "audio_pronunciation": "hydrogen.mp3"
    }
  },
  {
    "id": "science_element_002",
    "category": "Chemistry",
    "topic": "Periodic Table",
    "curriculum_level": "SS2-SS3",
    "title": "Interactive Periodic Table: Carbon",
    "content": {
      "element": {
        "symbol": "C",
        "atomic_number": 6,
        "atomic_mass": 12.011,
        "group": 14,
        "period": 2,
        "block": "p",
        "electron_configuration": "[He] 2s² 2p²",
        "state_at_rtp": "Solid",
        "melting_point_c": 3550,
        "boiling_point_c": 4027,
        "density_g_cm3": 2.267
      },
      "properties": "Carbon forms four bonds, basis of organic chemistry. Exists as diamond, graphite, graphene, and amorphous forms.",
      "uses": "Steel production, electronics, nanotechnology, biological molecules",
      "nigerian_context": "Carbon in Nigerian crude oil, graphite mining in Niger State, carbon sequestration in Lagos mangroves.",
      "related_concepts": ["Allotropes", "Organic chemistry", "Carbon cycle"],
      "difficulty": "Intermediate",
      "tags": ["periodic table", "elements", "organic chemistry"]
    },
    "multimedia": {
      "interactive_diagram": "carbon_allotropes.html",
      "animation": "carbon_bonding.mp4",
      "audio_pronunciation": "carbon.mp3"
    }
  },
  {
    "id": "physics_concept_001",
    "category": "Physics",
    "topic": "Mechanics",
    "curriculum_level": "SS2-SS3",
    "title": "Newton's Laws of Motion",
    "content": {
      "laws": [
        {
          "number": 1,
          "statement": "An object at rest stays at rest, and an object in motion stays in motion with the same speed and in the same direction unless acted upon by an unbalanced force.",
          "formula": "F_net = 0 → a = 0",
          "example": "A book on a table remains at rest due to balanced normal and gravitational forces."
        },
        {
          "number": 2,
          "statement": "Force equals mass times acceleration.",
          "formula": "F = ma",
          "example": "A 2kg object accelerating at 3m/s² experiences 6N of force."
        },
        {
          "number": 3,
          "statement": "For every action, there is an equal and opposite reaction.",
          "formula": "F_action = -F_reaction",
          "example": "Rocket propulsion: exhaust gases push down, rocket pushes up."
        }
      ],
      "applications": "Vehicle design, sports mechanics, structural engineering",
      "nigerian_context": "Traffic flow in Lagos (Newton's 1st), vehicle acceleration on Nigerian highways (2nd), boat propulsion in Niger Delta (3rd)",
      "related_concepts": ["Inertia", "Momentum", "Friction"],
      "difficulty": "Intermediate",
      "tags": ["mechanics", "laws", "motion"]
    },
    "multimedia": {
      "animation": "newtons_laws_simulation.mp4",
      "interactive_diagram": "force_diagrams.html",
      "audio_pronunciation": "newtons_laws.mp3"
    }
  },
  {
    "id": "physics_concept_002",
    "category": "Physics",
    "topic": "Electricity",
    "curriculum_level": "SS2-SS3",
    "title": "Ohm's Law and Electrical Circuits",
    "content": {
      "law": "V = IR",
      "explanation": "Voltage equals current multiplied by resistance. Current is the flow of charge, voltage is electrical potential difference, resistance opposes current flow.",
      "components": {
        "resistor": "Opposes current flow, measured in ohms (Ω)",
        "capacitor": "Stores electrical charge, measured in farads (F)",
        "inductor": "Stores energy in magnetic field, measured in henrys (H)"
      },
      "circuit_types": ["Series: I_total = I, V_total = V1+V2+V3", "Parallel: I_total = I1+I2+I3, V_total = V"],
      "nigerian_context": "Household wiring in Nigerian homes, power distribution in PHCN grid, solar panel circuits in rural electrification",
      "related_concepts": ["Power", "Energy", "Kirchhoff's laws"],
      "difficulty": "Intermediate",
      "tags": ["electricity", "circuits", "resistance"]
    },
    "multimedia": {
      "animation": "circuit_simulation.mp4",
      "interactive_diagram": "ohms_law_calculator.html",
      "audio_pronunciation": "ohms_law.mp3"
    }
  },
  {
    "id": "biology_concept_001",
    "category": "Biology",
    "topic": "Cell Biology",
    "curriculum_level": "SS1-SS2",
    "title": "Cell Structure and Function",
    "content": {
      "cell_types": {
        "prokaryotic": "No nucleus, smaller, bacteria (e.g., E. coli)",
        "eukaryotic": "Nucleus present, larger, plants and animals"
      },
      "organelles": [
        {"name": "Nucleus", "function": "Control center, contains DNA"},
        {"name": "Mitochondria", "function": "Energy production (ATP)"},
        {"name": "Endoplasmic Reticulum", "function": "Protein synthesis and transport"},
        {"name": "Golgi Apparatus", "function": "Protein modification and packaging"},
        {"name": "Lysosomes", "function": "Digestion of waste materials"},
        {"name": "Vacuoles", "function": "Storage and waste management"}
      ],
      "cell_membrane": "Selectively permeable barrier controlling substance movement",
      "nigerian_context": "Malaria parasite (Plasmodium) in red blood cells, cassava plant cells resistant to pests",
      "related_concepts": ["Diffusion", "Osmosis", "Active transport"],
      "difficulty": "Beginner",
      "tags": ["cells", "organelles", "structure"]
    },
    "multimedia": {
      "animation": "cell_division.mp4",
      "interactive_diagram": "animal_cell_3d.html",
      "audio_pronunciation": "cell_structure.mp3"
    }
  },
  {
    "id": "biology_concept_002",
    "category": "Biology",
    "topic": "Ecology",
    "curriculum_level": "SS2-SS3",
    "title": "Nigerian Savanna Ecosystem",
    "content": {
      "characteristics": "Grassland with scattered trees, seasonal rainfall, distinct wet/dry seasons",
      "biotic_components": {
        "producers": ["Grasses", "Acacia trees", "Baobab"],
        "consumers": ["Antelopes", "Zebras", "Lions", "Hyenas"],
        "decomposers": ["Bacteria", "Fungi", "Termites"]
      },
      "abiotic_factors": {
        "climate": "Temperature 20-30°C, rainfall 500-1000mm/year",
        "soil": "Fertile but prone to erosion",
        "water": "Seasonal rivers and streams"
      },
      "human_impact": "Overgrazing, deforestation, desertification",
      "conservation": "National parks (Yankari, Kainji), community-based conservation",
      "nigerian_context": "Northern Nigeria savannas threatened by climate change, importance for cattle rearing and tourism",
      "related_concepts": ["Food chains", "Energy flow", "Biodiversity"],
      "difficulty": "Intermediate",
      "tags": ["ecology", "ecosystems", "savanna"]
    },
    "multimedia": {
      "animation": "savanna_food_web.mp4",
      "interactive_diagram": "ecosystem_pyramid.html",
      "audio_pronunciation": "savanna_ecosystem.mp3"
    }
  }
]
